<?xml version="1.0" encoding="UTF-8"?>

<!-- generated on 2023-01-31 18:49:50 by Eclipse SUMO GUI Version 1.15.0
<configuration xmlns:xsi="http://www.w3.org/2001/XMLSchema-instance" xsi:noNamespaceSchemaLocation="http://sumo.dlr.de/xsd/sumoConfiguration.xsd">

    <input>
        <net-file value="norte86.net.xml"/>
        <additional-files value="norte86.add.xml,tl_logic-origin.xml"/>
    </input>

    <output>
        <tripinfo-output value="outputCARROS.xml"/>
        <statistic-output value="outputTEMPOS.xml"/>
    </output>

    <time>
        <begin value="0"/>
        <end value="10000"/>
    </time>

    <gui_only>
        <gui-settings-file value="viewsettings.xml"/>
    </gui_only>

</configuration>
-->

<detector xmlns:xsi="http://www.w3.org/2001/XMLSchema-instance" xsi:noNamespaceSchemaLocation="http://sumo.dlr.de/xsd/det_e1_file.xsd">
</detector>
